; em.mdp - used as input into grompp to generate em.tpr
; Parameters describing what to do, when to stop and what to save
define      = -DPOSRES_CAVITY -DPOSRES_WATER
;integrator  = steep         ; Algorithm (steep = steepest descent minimization)
integrator  = cg         ; Algorithm (steep = steepest descent minimization)
emtol       = 1.0        ; Stop minimization when the maximum force < 1000.0 kJ/mol/nm
emstep      = 0.01          ; Minimization step size
nsteps      = 500000           ; Maximum number of (minimization) steps to perform
nstcgsteep  = 100

lincs-order =8
; Parameters describing how to find the neighbors of each atom and how to calculate the interactions
cutoff-scheme   = Verlet    ; Buffered neighbor searching
nstlist = 100
coulombtype     = PME       ; Treatment of long range electrostatic interactions
rcoulomb        = 1.2       ; Short-range electrostatic cut-off
rvdw            = 1.2       ; Short-range Van der Waals cut-off
pbc             = xyz       ; Periodic Boundary Conditions in all 3 dimensions
